# vtk DataFile Version 2.0
ToPy data, created 2015-08-01 13:03:54
ASCII
DATASET UNSTRUCTURED_GRID
POINTS 53472 float
-0.5 -0.5 -0.5
0.5 -0.5 -0.5
-0.5 0.5 -0.5
0.5 0.5 -0.5
-0.5 -0.5 0.5
0.5 -0.5 0.5
-0.5 0.5 0.5
0.5 0.5 0.5
-0.5 -0.5 0.5
0.5 -0.5 0.5
-0.5 0.5 0.5
0.5 0.5 0.5
-0.5 -0.5 1.5
0.5 -0.5 1.5
-0.5 0.5 1.5
0.5 0.5 1.5
-0.5 -0.5 1.5
0.5 -0.5 1.5
-0.5 0.5 1.5
0.5 0.5 1.5
-0.5 -0.5 2.5
0.5 -0.5 2.5
-0.5 0.5 2.5
0.5 0.5 2.5
-0.5 -0.5 2.5
0.5 -0.5 2.5
-0.5 0.5 2.5
0.5 0.5 2.5
-0.5 -0.5 3.5
0.5 -0.5 3.5
-0.5 0.5 3.5
0.5 0.5 3.5
-0.5 -0.5 3.5
0.5 -0.5 3.5
-0.5 0.5 3.5
0.5 0.5 3.5
-0.5 -0.5 4.5
0.5 -0.5 4.5
-0.5 0.5 4.5
0.5 0.5 4.5
-0.5 -0.5 4.5
0.5 -0.5 4.5
-0.5 0.5 4.5
0.5 0.5 4.5
-0.5 -0.5 5.5
0.5 -0.5 5.5
-0.5 0.5 5.5
0.5 0.5 5.5
-0.5 -0.5 5.5
0.5 -0.5 5.5
-0.5 0.5 5.5
0.5 0.5 5.5
-0.5 -0.5 6.5
0.5 -0.5 6.5
-0.5 0.5 6.5
0.5 0.5 6.5
-0.5 -0.5 6.5
0.5 -0.5 6.5
-0.5 0.5 6.5
0.5 0.5 6.5
-0.5 -0.5 7.5
0.5 -0.5 7.5
-0.5 0.5 7.5
0.5 0.5 7.5
-0.5 -0.5 7.5
0.5 -0.5 7.5
-0.5 0.5 7.5
0.5 0.5 7.5
-0.5 -0.5 8.5
0.5 -0.5 8.5
-0.5 0.5 8.5
0.5 0.5 8.5
-0.5 -0.5 8.5
0.5 -0.5 8.5
-0.5 0.5 8.5
0.5 0.5 8.5
-0.5 -0.5 9.5
0.5 -0.5 9.5
-0.5 0.5 9.5
0.5 0.5 9.5
-0.5 -0.5 9.5
0.5 -0.5 9.5
-0.5 0.5 9.5
0.5 0.5 9.5
-0.5 -0.5 10.5
0.5 -0.5 10.5
-0.5 0.5 10.5
0.5 0.5 10.5
-0.5 -0.5 10.5
0.5 -0.5 10.5
-0.5 0.5 10.5
0.5 0.5 10.5
-0.5 -0.5 11.5
0.5 -0.5 11.5
-0.5 0.5 11.5
0.5 0.5 11.5
-0.5 -0.5 11.5
0.5 -0.5 11.5
-0.5 0.5 11.5
0.5 0.5 11.5
-0.5 -0.5 12.5
0.5 -0.5 12.5
-0.5 0.5 12.5
0.5 0.5 12.5
-0.5 -0.5 12.5
0.5 -0.5 12.5
-0.5 0.5 12.5
0.5 0.5 12.5
-0.5 -0.5 13.5
0.5 -0.5 13.5
-0.5 0.5 13.5
0.5 0.5 13.5
-0.5 0.5 -0.5
0.5 0.5 -0.5
-0.5 1.5 -0.5
0.5 1.5 -0.5
-0.5 0.5 0.5
0.5 0.5 0.5
-0.5 1.5 0.5
0.5 1.5 0.5
-0.5 0.5 0.5
0.5 0.5 0.5
-0.5 1.5 0.5
0.5 1.5 0.5
-0.5 0.5 1.5
0.5 0.5 1.5
-0.5 1.5 1.5
0.5 1.5 1.5
-0.5 0.5 1.5
0.5 0.5 1.5
-0.5 1.5 1.5
0.5 1.5 1.5
-0.5 0.5 2.5
0.5 0.5 2.5
-0.5 1.5 2.5
0.5 1.5 2.5
-0.5 0.5 2.5
0.5 0.5 2.5
-0.5 1.5 2.5
0.5 1.5 2.5
-0.5 0.5 3.5
0.5 0.5 3.5
-0.5 1.5 3.5
0.5 1.5 3.5
-0.5 0.5 3.5
0.5 0.5 3.5
-0.5 1.5 3.5
0.5 1.5 3.5
-0.5 0.5 4.5
0.5 0.5 4.5
-0.5 1.5 4.5
0.5 1.5 4.5
-0.5 0.5 4.5
0.5 0.5 4.5
-0.5 1.5 4.5
0.5 1.5 4.5
-0.5 0.5 5.5
0.5 0.5 5.5
-0.5 1.5 5.5
0.5 1.5 5.5
-0.5 0.5 5.5
0.5 0.5 5.5
-0.5 1.5 5.5
0.5 1.5 5.5
-0.5 0.5 6.5
0.5 0.5 6.5
-0.5 1.5 6.5
0.5 1.5 6.5
-0.5 0.5 6.5
0.5 0.5 6.5
-0.5 1.5 6.5
0.5 1.5 6.5
-0.5 0.5 7.5
0.5 0.5 7.5
-0.5 1.5 7.5
0.5 1.5 7.5
-0.5 0.5 7.5
0.5 0.5 7.5
-0.5 1.5 7.5
0.5 1.5 7.5
-0.5 0.5 8.5
0.5 0.5 8.5
-0.5 1.5 8.5
0.5 1.5 8.5
-0.5 0.5 8.5
0.5 0.5 8.5
-0.5 1.5 8.5
0.5 1.5 8.5
-0.5 0.5 9.5
0.5 0.5 9.5
-0.5 1.5 9.5
0.5 1.5 9.5
-0.5 0.5 9.5
0.5 0.5 9.5
-0.5 1.5 9.5
0.5 1.5 9.5
-0.5 0.5 10.5
0.5 0.5 10.5
-0.5 1.5 10.5
0.5 1.5 10.5
-0.5 0.5 10.5
0.5 0.5 10.5
-0.5 1.5 10.5
0.5 1.5 10.5
-0.5 0.5 11.5
0.5 0.5 11.5
-0.5 1.5 11.5
0.5 1.5 11.5
-0.5 0.5 11.5
0.5 0.5 11.5
-0.5 1.5 11.5
0.5 1.5 11.5
-0.5 0.5 12.5
0.5 0.5 12.5
-0.5 1.5 12.5
0.5 1.5 12.5
-0.5 0.5 12.5
0.5 0.5 12.5
-0.5 1.5 12.5
0.5 1.5 12.5
-0.5 0.5 13.5
0.5 0.5 13.5
-0.5 1.5 13.5
0.5 1.5 13.5
-0.5 13.5 -0.5
0.5 13.5 -0.5
-0.5 14.5 -0.5
0.5 14.5 -0.5
-0.5 13.5 0.5
0.5 13.5 0.5
-0.5 14.5 0.5
0.5 14.5 0.5
-0.5 13.5 0.5
0.5 13.5 0.5
-0.5 14.5 0.5
0.5 14.5 0.5
-0.5 13.5 1.5
0.5 13.5 1.5
-0.5 14.5 1.5
0.5 14.5 1.5
-0.5 13.5 1.5
0.5 13.5 1.5
-0.5 14.5 1.5
0.5 14.5 1.5
-0.5 13.5 2.5
0.5 13.5 2.5
-0.5 14.5 2.5
0.5 14.5 2.5
-0.5 13.5 2.5
0.5 13.5 2.5
-0.5 14.5 2.5
0.5 14.5 2.5
-0.5 13.5 3.5
0.5 13.5 3.5
-0.5 14.5 3.5
0.5 14.5 3.5
-0.5 13.5 3.5
0.5 13.5 3.5
-0.5 14.5 3.5
0.5 14.5 3.5
-0.5 13.5 4.5
0.5 13.5 4.5
-0.5 14.5 4.5
0.5 14.5 4.5
-0.5 13.5 4.5
0.5 13.5 4.5
-0.5 14.5 4.5
0.5 14.5 4.5
-0.5 13.5 5.5
0.5 13.5 5.5
-0.5 14.5 5.5
0.5 14.5 5.5
-0.5 13.5 5.5
0.5 13.5 5.5
-0.5 14.5 5.5
0.5 14.5 5.5
-0.5 13.5 6.5
0.5 13.5 6.5
-0.5 14.5 6.5
0.5 14.5 6.5
-0.5 13.5 6.5
0.5 13.5 6.5
-0.5 14.5 6.5
0.5 14.5 6.5
-0.5 13.5 7.5
0.5 13.5 7.5
-0.5 14.5 7.5
0.5 14.5 7.5
-0.5 13.5 7.5
0.5 13.5 7.5
-0.5 14.5 7.5
0.5 14.5 7.5
-0.5 13.5 8.5
0.5 13.5 8.5
-0.5 14.5 8.5
0.5 14.5 8.5
-0.5 13.5 8.5
0.5 13.5 8.5
-0.5 14.5 8.5
0.5 14.5 8.5
-0.5 13.5 9.5
0.5 13.5 9.5
-0.5 14.5 9.5
0.5 14.5 9.5
-0.5 13.5 9.5
0.5 13.5 9.5
-0.5 14.5 9.5
0.5 14.5 9.5
-0.5 13.5 10.5
0.5 13.5 10.5
-0.5 14.5 10.5
0.5 14.5 10.5
-0.5 13.5 10.5
0.5 13.5 10.5
-0.5 14.5 10.5
0.5 14.5 10.5
-0.5 13.5 11.5
0.5 13.5 11.5
-0.5 14.5 11.5
0.5 14.5 11.5
-0.5 13.5 11.5
0.5 13.5 11.5
-0.5 14.5 11.5
0.5 14.5 11.5
-0.5 13.5 12.5
0.5 13.5 12.5
-0.5 14.5 12.5
0.5 14.5 12.5
-0.5 13.5 12.5
0.5 13.5 12.5
-0.5 14.5 12.5
0.5 14.5 12.5
-0.5 13.5 13.5
0.5 13.5 13.5
-0.5 14.5 13.5
0.5 14.5 13.5
-0.5 14.5 -0.5
0.5 14.5 -0.5
-0.5 15.5 -0.5
0.5 15.5 -0.5
-0.5 14.5 0.5
0.5 14.5 0.5
-0.5 15.5 0.5
0.5 15.5 0.5
-0.5 14.5 0.5
0.5 14.5 0.5
-0.5 15.5 0.5
0.5 15.5 0.5
-0.5 14.5 1.5
0.5 14.5 1.5
-0.5 15.5 1.5
0.5 15.5 1.5
-0.5 14.5 1.5
0.5 14.5 1.5
-0.5 15.5 1.5
0.5 15.5 1.5
-0.5 14.5 2.5
0.5 14.5 2.5
-0.5 15.5 2.5
0.5 15.5 2.5
-0.5 14.5 2.5
0.5 14.5 2.5
-0.5 15.5 2.5
0.5 15.5 2.5
-0.5 14.5 3.5
0.5 14.5 3.5
-0.5 15.5 3.5
0.5 15.5 3.5
-0.5 14.5 3.5
0.5 14.5 3.5
-0.5 15.5 3.5
0.5 15.5 3.5
-0.5 14.5 4.5
0.5 14.5 4.5
-0.5 15.5 4.5
0.5 15.5 4.5
-0.5 14.5 4.5
0.5 14.5 4.5
-0.5 15.5 4.5
0.5 15.5 4.5
-0.5 14.5 5.5
0.5 14.5 5.5
-0.5 15.5 5.5
0.5 15.5 5.5
-0.5 14.5 5.5
0.5 14.5 5.5
-0.5 15.5 5.5
0.5 15.5 5.5
-0.5 14.5 6.5
0.5 14.5 6.5
-0.5 15.5 6.5
0.5 15.5 6.5
-0.5 14.5 6.5
0.5 14.5 6.5
-0.5 15.5 6.5
0.5 15.5 6.5
-0.5 14.5 7.5
0.5 14.5 7.5
-0.5 15.5 7.5
0.5 15.5 7.5
-0.5 14.5 7.5
0.5 14.5 7.5
-0.5 15.5 7.5
0.5 15.5 7.5
-0.5 14.5 8.5
0.5 14.5 8.5
-0.5 15.5 8.5
0.5 15.5 8.5
-0.5 14.5 8.5
0.5 14.5 8.5
-0.5 15.5 8.5
0.5 15.5 8.5
-0.5 14.5 9.5
0.5 14.5 9.5
-0.5 15.5 9.5
0.5 15.5 9.5
-0.5 14.5 9.5
0.5 14.5 9.5
-0.5 15.5 9.5
0.5 15.5 9.5
-0.5 14.5 10.5
0.5 14.5 10.5
-0.5 15.5 10.5
0.5 15.5 10.5
-0.5 14.5 10.5
0.5 14.5 10.5
-0.5 15.5 10.5
0.5 15.5 10.5
-0.5 14.5 11.5
0.5 14.5 11.5
-0.5 15.5 11.5
0.5 15.5 11.5
-0.5 14.5 11.5
0.5 14.5 11.5
-0.5 15.5 11.5
0.5 15.5 11.5
-0.5 14.5 12.5
0.5 14.5 12.5
-0.5 15.5 12.5
0.5 15.5 12.5
-0.5 14.5 12.5
0.5 14.5 12.5
-0.5 15.5 12.5
0.5 15.5 12.5
-0.5 14.5 13.5
0.5 14.5 13.5
-0.5 15.5 13.5
0.5 15.5 13.5
-0.5 15.5 -0.5
0.5 15.5 -0.5
-0.5 16.5 -0.5
0.5 16.5 -0.5
-0.5 15.5 0.5
0.5 15.5 0.5
-0.5 16.5 0.5
0.5 16.5 0.5
-0.5 15.5 0.5
0.5 15.5 0.5
-0.5 16.5 0.5
0.5 16.5 0.5
-0.5 15.5 1.5
0.5 15.5 1.5
-0.5 16.5 1.5
0.5 16.5 1.5
-0.5 15.5 1.5
0.5 15.5 1.5
-0.5 16.5 1.5
0.5 16.5 1.5
-0.5 15.5 2.5
0.5 15.5 2.5
-0.5 16.5 2.5
0.5 16.5 2.5
-0.5 15.5 2.5
0.5 15.5 2.5
-0.5 16.5 2.5
0.5 16.5 2.5
-0.5 15.5 3.5
0.5 15.5 3.5
-0.5 16.5 3.5
0.5 16.5 3.5
-0.5 15.5 3.5
0.5 15.5 3.5
-0.5 16.5 3.5
0.5 16.5 3.5
-0.5 15.5 4.5
0.5 15.5 4.5
-0.5 16.5 4.5
0.5 16.5 4.5
-0.5 15.5 4.5
0.5 15.5 4.5
-0.5 16.5 4.5
0.5 16.5 4.5
-0.5 15.5 5.5
0.5 15.5 5.5
-0.5 16.5 5.5
0.5 16.5 5.5
-0.5 15.5 5.5
0.5 15.5 5.5
-0.5 16.5 5.5
0.5 16.5 5.5
-0.5 15.5 6.5
0.5 15.5 6.5
-0.5 16.5 6.5
0.5 16.5 6.5
-0.5 15.5 6.5
0.5 15.5 6.5
-0.5 16.5 6.5
0.5 16.5 6.5
-0.5 15.5 7.5
0.5 15.5 7.5
-0.5 16.5 7.5
0.5 16.5 7.5
-0.5 15.5 7.5
0.5 15.5 7.5
-0.5 16.5 7.5
0.5 16.5 7.5
-0.5 15.5 8.5
0.5 15.5 8.5
-0.5 16.5 8.5
0.5 16.5 8.5
-0.5 15.5 8.5
0.5 15.5 8.5
-0.5 16.5 8.5
0.5 16.5 8.5
-0.5 15.5 9.5
0.5 15.5 9.5
-0.5 16.5 9.5
0.5 16.5 9.5
-0.5 15.5 9.5
0.5 15.5 9.5
-0.5 16.5 9.5
0.5 16.5 9.5
-0.5 15.5 10.5
0.5 15.5 10.5
-0.5 16.5 10.5
0.5 16.5 10.5
-0.5 15.5 10.5
0.5 15.5 10.5
-0.5 16.5 10.5
0.5 16.5 10.5
-0.5 15.5 11.5
0.5 15.5 11.5
-0.5 16.5 11.5
0.5 16.5 11.5
-0.5 15.5 11.5
0.5 15.5 11.5
-0.5 16.5 11.5
0.5 16.5 11.5
-0.5 15.5 12.5
0.5 15.5 12.5
-0.5 16.5 12.5
0.5 16.5 12.5
-0.5 15.5 12.5
0.5 15.5 12.5
-0.5 16.5 12.5
0.5 16.5 12.5
-0.5 15.5 13.5
0.5 15.5 13.5
-0.5 16.5 13.5
0.5 16.5 13.5
-0.5 16.5 -0.5
0.5 16.5 -0.5
-0.5 17.5 -0.5
0.5 17.5 -0.5
-0.5 16.5 0.5
0.5 16.5 0.5
-0.5 17.5 0.5
0.5 17.5 0.5
-0.5 16.5 0.5
0.5 16.5 0.5
-0.5 17.5 0.5
0.5 17.5 0.5
-0.5 16.5 1.5
0.5 16.5 1.5
-0.5 17.5 1.5
0.5 17.5 1.5
-0.5 16.5 1.5
0.5 16.5 1.5
-0.5 17.5 1.5
0.5 17.5 1.5
-0.5 16.5 2.5
0.5 16.5 2.5
-0.5 17.5 2.5
0.5 17.5 2.5
-0.5 16.5 2.5
0.5 16.5 2.5
-0.5 17.5 2.5
0.5 17.5 2.5
-0.5 16.5 3.5
0.5 16.5 3.5
-0.5 17.5 3.5
0.5 17.5 3.5
-0.5 16.5 3.5
0.5 16.5 3.5
-0.5 17.5 3.5
0.5 17.5 3.5
-0.5 16.5 4.5
0.5 16.5 4.5
-0.5 17.5 4.5
0.5 17.5 4.5
-0.5 16.5 4.5
0.5 16.5 4.5
-0.5 17.5 4.5
0.5 17.5 4.5
-0.5 16.5 5.5
0.5 16.5 5.5
-0.5 17.5 5.5
0.5 17.5 5.5
-0.5 16.5 5.5
0.5 16.5 5.5
-0.5 17.5 5.5
0.5 17.5 5.5
-0.5 16.5 6.5
0.5 16.5 6.5
-0.5 17.5 6.5
0.5 17.5 6.5
-0.5 16.5 6.5
0.5 16.5 6.5
-0.5 17.5 6.5
0.5 17.5 6.5
-0.5 16.5 7.5
0.5 16.5 7.5
-0.5 17.5 7.5
0.5 17.5 7.5
-0.5 16.5 7.5
0.5 16.5 7.5
-0.5 17.5 7.5
0.5 17.5 7.5
-0.5 16.5 8.5
0.5 16.5 8.5
-0.5 17.5 8.5
0.5 17.5 8.5
-0.5 16.5 8.5
0.5 16.5 8.5
-0.5 17.5 8.5
0.5 17.5 8.5
-0.5 16.5 9.5
0.5 16.5 9.5
-0.5 17.5 9.5
0.5 17.5 9.5
-0.5 16.5 9.5
0.5 16.5 9.5
-0.5 17.5 9.5
0.5 17.5 9.5
-0.5 16.5 10.5
0.5 16.5 10.5
-0.5 17.5 10.5
0.5 17.5 10.5
-0.5 16.5 10.5
0.5 16.5 10.5
-0.5 17.5 10.5
0.5 17.5 10.5
-0.5 16.5 11.5
0.5 16.5 11.5
-0.5 17.5 11.5
0.5 17.5 11.5
-0.5 16.5 11.5
0.5 16.5 11.5
-0.5 17.5 11.5
0.5 17.5 11.5
-0.5 16.5 12.5
0.5 16.5 12.5
-0.5 17.5 12.5
0.5 17.5 12.5
-0.5 16.5 12.5
0.5 16.5 12.5
-0.5 17.5 12.5
0.5 17.5 12.5
-0.5 16.5 13.5
0.5 16.5 13.5
-0.5 17.5 13.5
0.5 17.5 13.5
0.5 -0.5 -0.5
1.5 -0.5 -0.5
0.5 0.5 -0.5
1.5 0.5 -0.5
0.5 -0.5 0.5
1.5 -0.5 0.5
0.5 0.5 0.5
1.5 0.5 0.5
0.5 -0.5 0.5
1.5 -0.5 0.5
0.5 0.5 0.5
1.5 0.5 0.5
0.5 -0.5 1.5
1.5 -0.5 1.5
0.5 0.5 1.5
1.5 0.5 1.5
0.5 -0.5 1.5
1.5 -0.5 1.5
0.5 0.5 1.5
1.5 0.5 1.5
0.5 -0.5 2.5
1.5 -0.5 2.5
0.5 0.5 2.5
1.5 0.5 2.5
0.5 -0.5 2.5
1.5 -0.5 2.5
0.5 0.5 2.5
1.5 0.5 2.5
0.5 -0.5 3.5
1.5 -0.5 3.5
0.5 0.5 3.5
1.5 0.5 3.5
0.5 -0.5 3.5
1.5 -0.5 3.5
0.5 0.5 3.5
1.5 0.5 3.5
0.5 -0.5 4.5
1.5 -0.5 4.5
0.5 0.5 4.5
1.5 0.5 4.5
0.5 -0.5 4.5
1.5 -0.5 4.5
0.5 0.5 4.5
1.5 0.5 4.5
0.5 -0.5 5.5
1.5 -0.5 5.5
0.5 0.5 5.5
1.5 0.5 5.5
0.5 -0.5 5.5
1.5 -0.5 5.5
0.5 0.5 5.5
1.5 0.5 5.5
0.5 -0.5 6.5
1.5 -0.5 6.5
0.5 0.5 6.5
1.5 0.5 6.5
0.5 -0.5 6.5
1.5 -0.5 6.5
0.5 0.5 6.5
1.5 0.5 6.5
0.5 -0.5 7.5
1.5 -0.5 7.5
[...]
CELL_DATA 6684
SCALARS Densities double 1
LOOKUP_TABLE default
0.0482647178483 0.03618895166 0.0289705166569 0.0303813089721 0.0324821051915 0.0326278917648 0.0326886761891 0.0343642823749 0.0375871117343 0.0401573909106 0.039220733392 0.0376048125516 0.0451187053635 0.0573297133532 0.00661024927813 0.00481214082362 0.00424246343386 0.00462725387925 0.0050183317857 0.00506648074664 0.00507831557786 0.00534052095693 0.00584482674372 0.00622016629507 0.0059853988235 0.00550646871154 0.00603264129185 0.00789414541876 0.00707498675214 0.0072476949599 0.00643000991061 0.00489349612235 0.0035345591768 0.00266557457119 0.00229964730221 0.00241615087771 0.00308903599363 0.00448918979295 0.00676385960701 0.00955413448775 0.0113610776681 0.0115622749794 0.226146362951 0.21689384542 0.185357122539 0.147282009969 0.115919390221 0.0920251758328 0.0794342999901 0.0817680670303 0.0998837304417 0.129003397333 0.170933087051 0.225522945698 0.271806691821 0.293181950773 1.0 1.0 1.0 1.0 1.0 1.0 1.0 1.0 1.0 1.0 1.0 1.0 1.0 1.0 1.0 1.0 1.0 1.0 1.0 1.0 1.0 1.0 1.0 1.0 1.0 1.0 1.0 1.0 0.0288068733998 0.0250606149329 0.0209172955882 0.0202079779011 0.0207218278968 0.0205437811993 0.0205079593884 0.0215951700506 0.0237990507959 0.0258558814414 0.0262525143581 0.0269556828559 0.0309581288553 0.0341487533932 0.00804258438838 0.00867846041519 0.00864229258112 0.00882507191958 0.00922649068332 0.00926001747433 0.00930098795024 0.00983826917145 0.0108678595078 0.0117351914173 0.011695979902 0.0113352969211 0.0109342135485 0.00975857950873 0.00119599238545 0.00129938825716 0.00140346121102 0.00144334667174 0.00146845824092 0.00155849428749 0.00171105430257 0.00181293980481 0.0017515543872 0.00159845302137 0.00128779977276 0.00674382208734 0.00526040826448 0.0040169068611 0.00286831400771 0.00207541543835 0.00163567661212 0.00147270244345 0.00153909360347 0.00186363840065 0.00256574071255 0.00382609005742 0.00568039384147 0.00782322152008 0.0104153850895 0.276938256027 0.229504507944 0.180498836514 0.134535895304 0.100313347601 0.0777994825225 0.0675649148466 0.0690237251958 0.0828121785372 0.110142952102 0.153125593102 0.214954095398 0.285185476167 0.35532597697 1.0 1.0 1.0 1.0 1.0 1.0 0.971385993985 0.981801177089 1.0 1.0 1.0 1.0 1.0 1.0 1.0 1.0 1.0 1.0 1.0 1.0 1.0 1.0 1.0 1.0 1.0 1.0 1.0 1.0 0.0117714570718 0.0136528970584 0.0122107431232 0.0102919539978 0.00958644366175 0.00917546316442 0.00904455402992 0.00954141723465 0.010702822013 0.0120969218357 0.0134376974278 0.0156189044632 0.0168111576796 0.0141076122095 0.0109466685182 0.0162901029994 0.0177356438818 0.0163173905146 0.0155581215759 0.0150941585351 0.0150027141721 0.0158849614701 0.0177884373579 0.019913311641 0.0216553721971 0.0232379701227 0.0207784980835 0.0137356758779 0.00339501921303 0.00614667678979 0.00785785708374 0.00776235155189 0.00759994816095 0.00751234432829 0.00755652787353 0.00800748012014 0.00887828083718 0.00977630166319 0.0103873026 0.0104834400326 0.00809950211999 0.00447872469783 0.00127352639414 0.00138633789213 0.00140937956148 0.00142874730021 0.00145938699584 0.00154366307817 0.00168100811271 0.00180426648148 0.00185530282593 0.0017256606537 0.00111612713063 0.0363125279803 0.0344835896095 0.0258191139813 0.0153644738412 0.00861852929748 0.00524019622359 0.00394549103542 0.00391524566743 0.00520455251329 0.00883991605867 0.0165195771943 0.0291661032467 0.0410113830837 0.0455849584747 0.560834464367 0.52821162227 0.423961832603 0.29005945466 0.184649857685 0.122486362924 0.0967452958753 0.0963472472719 0.122452451786 0.189975775566 0.306906796865 0.462857860907 0.599272440898 0.661562028838 1.0 1.0 1.0 1.0 1.0 0.827319697066 0.685626752613 0.685957684879 0.835211229043 1.0 1.0 1.0 1.0 1.0 1.0 1.0 1.0 1.0 1.0 1.0 1.0 1.0 1.0 1.0 1.0 1.0 1.0 1.0 0.00287571124004 0.00430061360281 0.00433052932536 0.00331772696308 0.00272718326379 0.002453687773 0.00236423741857 0.00249852205046 0.00288137519644 0.00347565616192 0.00435163070655 0.00556472435413 0.00538193319956 0.00355574893827 0.00724346755401 0.013016158865 0.0154640382845 0.0132612586511 0.0113495274443 0.0104029665579 0.0101391124002 0.0107327777266 0.0122655877799 0.0145342535748 0.0175627354942 0.0203478632274 0.0169455449029 0.00946649690991 0.00608891092736 0.012601744902 0.0174285517276 0.016425058786 0.0145711365399 0.0136052906338 0.0134211443349 0.0141972908484 0.016011582562 0.0186260320834 0.0218492877953 0.0233955400912 0.0170448718849 0.00842180815148 0.00183203983816 0.00432615444392 0.00700628412348 0.00726888760588 0.00671179345793 0.0063868178171 0.00637147867328 0.00671876791088 0.00745453491784 0.00850056723599 0.00965577896553 0.00955041253201 0.0060529906841 0.0026680006003 0.00129893649472 0.00152147920113 0.00147938575317 0.00143695657418 0.00144694995932 0.00151856242843 0.00165567596323 0.00184500142649 0.00200762945217 0.00179141394218 0.0122501908028 0.0145045319647 0.0124523196549 0.00743473435361 0.00429113218599 0.00288435650021 0.00234660441768 0.00229943260236 0.00276609312608 0.0041993244169 0.00763977514145 0.0134850868149 0.0166414513269 0.0147452275423 0.221188126735 0.252962653761 0.216354757889 0.139939746033 0.0823339353977 0.0528805296727 0.041022639437 0.0402103360959 0.050950991186 0.081017400755 0.142292718499 0.227262383933 0.27497284941 0.250090549572 1.0 1.0 1.0 0.878716468725 0.576112729229 0.386629746458 0.304760863906 0.300071788116 0.376157632982 0.570511590137 0.885596397201 1.0 1.0 1.0 1.0 1.0 1.0 1.0 1.0 0.865154487195 0.710600457235 0.703658319442 0.852092327867 1.0 1.0 1.0 1.0 1.0 1.0 1.0 1.0 0.965938245765 0.763090086196 0.575481154843 0.486480198417 0.485881931312 0.577874772837 0.777734005983 0.994265675134 1.0 1.0 1.0 0.00117271836941 0.00246677201429 0.00510805453907 0.00679923944577 0.00566643912472 0.00435809593619 0.00370726311844 0.00351664110364 0.00372048107091 0.00436904293549 0.00558084971855 0.00752966528472 0.00910969622054 0.00690396427872 0.00341594450266 0.00527821541973 0.0117954697914 0.0175489732326 0.016143132381 0.0130719839403 0.0113992179383 0.0109622388156 0.0115716548831 0.0133502954642 0.0166253009726 0.0214953507621 0.0239542669895 0.0165289499021 0.00768508385122 0.0038874848847 0.00941555735636 0.0156963698853 0.0157892136394 0.0134001648638 0.0119392684986 0.0116065515326 0.0121996086204 0.0138255348114 0.0168346661359 0.0209687999649 0.0217203879339 0.0135927223608 0.00590269509256 0.00121081122018 0.00323527176965 0.00613992655642 0.00678405631246 0.00605680644753 0.0055146135996 0.00540432228536 0.00565118760099 0.00629865749421 0.00749209939085 0.00894880512915 0.00856713587474 0.00477967331382 0.00190222429413 0.00130480269016 0.00161239249759 0.00152920006655 0.00142332314631 0.00140096101066 0.00145705533724 0.00160178504085 0.00185811391051 0.00210459087301 0.00182684720465 0.00637275512174 0.0076547670757 0.00686036368381 0.00414104157262 0.00243473372607 0.00174478582088 0.0015122717315 0.00148513879431 0.00167331675668 0.00236068671771 0.00419699867223 0.00734224010654 0.00866340063465 0.00755094132766 0.121070736544 0.14307188786 0.124014098246 0.0749708891024 0.0423299541242 0.0288067330861 0.0240704563537 0.0235774312842 0.0275156746341 0.0410062435821 0.0757161968043 0.130705578007 0.157942280725 0.138856936988 0.803137112651 0.893067662129 0.840616109553 0.571955856008 0.341044965019 0.229809758966 0.188195006748 0.184581332623 0.220698776812 0.332349443002 0.573410329512 0.863032260581 0.943772999102 0.860048486402 1.0 1.0 1.0 1.0 0.966798394364 0.666897798518 0.542384031884 0.533641347004 0.646164632376 0.960434382238 1.0 1.0 1.0 1.0 1.0 1.0 1.0 1.0 0.835312458001 0.590978097518 0.489197871532 0.483688693546 0.579194020792 0.83198917409 1.0 1.0 1.0 1.0 0.384111227563 0.432937223985 0.426646870062 0.32870778367 0.226180650807 0.164593884134 0.139047042807 0.138366339776 0.163765524758 0.229038049117 0.339309859141 0.443425108764 0.452816829667 0.414273293338 0.00115725516956 0.00175366026339 0.00147135404755 0.00103508979981 0.00132523819286 0.00197620090126 0.00242616917099 0.00165397667318 0.00255599976743 0.00604855986509 0.00961741637551 0.00872162656962 0.00651818966833 0.00529753836758 0.00495221850235 0.00521102161998 0.00616168199368 0.00825289308976 0.0116941093199 0.0134656417602 0.0088587159147 0.00394394338061 0.0043107157191 0.0105981005338 0.0179345888105 0.0174809892625 0.0137658723452 0.0115215251994 0.0109175614831 0.0114299737363 0.0132229983385 0.0171839175042 0.02332889087 0.0253316395672 0.0158481773198 0.00684070072219 0.00292648659594 0.00763946817427 0.0139402814135 0.0145565797551 0.0120585278962 0.0103792248619 0.00994092015875 0.0103501953989 0.0117369827636 0.0148020407021 0.0192516917173 0.019749556884 0.0115865126883 0.00474607544406 0.00275923964174 0.00551076579274 0.00620084105471 0.00542306902979 0.00479685823131 0.00462749518323 0.00479379778897 0.00534829307244 0.00653890468468 0.00809420246573 0.00778300390166 0.0042141691752 0.00159949727231 0.00134674487141 0.00164360689222 0.00152242954326 0.00137906125368 0.00133341802717 0.00137553936668 0.00151869541239 0.00180358226426 0.00211052118159 0.00188372717327 0.00388940968613 0.00441123986842 0.00383436633467 0.00235681643238 0.00144179576156 0.0010781579005 0.00103982238972 0.00139816421582 0.00237209967755 0.00407335726867 0.00494616993821 0.00454818014509 0.0718126551728 0.080356273535 0.066940571814 0.0387926470761 0.0218209286982 0.01546192497 0.0134997876449 0.0132286210522 0.0147157247165 0.0208835934745 0.0386790969935 0.0703390640756 0.0882569918054 0.081906922467 0.560803994736 0.631349460268 0.546280422176 0.343197078131 0.194738314516 0.134168449956 0.114933067596 0.112571398136 0.127767155256 0.186855981538 0.341435178103 0.562942007523 0.671240328564 0.613159022688 1.0 1.0 1.0 1.0 0.715628510025 0.485981068631 0.409070091026 0.401183082091 0.465055294642 0.691641010708 1.0 1.0 1.0 1.0 1.0 1.0 1.0 1.0 0.910676107014 0.61562220782 0.511483703308 0.502915144489 0.593715230773 0.888999669641 1.0 1.0 1.0 1.0 0.703354513011 0.843272198554 0.802828863036 0.567682357888 0.342096618362 0.232749595396 0.193906266966 0.191442905969 0.226873557339 0.338317724533 0.574642231942 0.817012579783 0.870847608993 0.745895958768 0.091971012721 0.112104760118 0.108071244206 0.0713024751945 0.042147024453 0.0288435372709 0.0241851893819 0.0239935403228 0.028461243894 0.0422739700719 0.073411463345 0.112959449091 0.119287433871 0.101042241935 0.00193021265022 0.00324946599295 0.00290880648226 0.00202985324581 0.00154703145076 0.00140713823768 0.00147437881538 0.0017831601324 0.00255992376819 0.00394679145122 0.00470053328 0.00297941322629 0.00127575718703 0.00283013638959 0.00706948754356 0.0119877653851 0.0112236641657 0.00825780745229 0.00655307489904 0.00607842176377 0.00633441964824 0.00744488971214 0.0102497586457 0.0150958402538 0.0173389184089 0.0109818751758 0.00470900486074 0.00400657392574 0.0102202646138 0.0177168902416 0.0173258448952 0.0134083302902 0.0110484158205 0.0104149869685 0.0107954097653 0.0123656726025 0.0163433730874 0.0230085784103 0.0255076596901 0.0159092865423 0.00670748033342 0.0026529872288 0.00704107519689 0.0126045889835 0.0128866172857 0.0105048432231 0.00897047342007 0.00855888508038 0.00883104768355 0.00990454675773 0.0125619192353 0.0168191375322 0.0179442630822 0.0109022566827 0.00444051670242 0.0010080256808 0.00278672177222 0.00514558303273 0.00551870836911 0.00474580186698 0.00417789741416 0.00401175889694 0.00412505494789 0.00456232657522 0.00557221414258 0.00705299948146 0.00718921081972 0.00424710056296 0.00166703307742 0.00145158367515 0.00161911164721 0.00145868507279 0.0013109993025 0.00125940314609 0.00129151257196 0.001418843085 0.00168336309033 0.00201756809046 0.00196641351779 0.00116180982622 0.00282657778646 0.00289791241205 0.00236911800431 0.00152327281556 0.0010114445149 0.00100168488029 0.00155324560403 0.00252645374975 0.00325315114783 0.0033053247869 0.0461929152586 0.0463251474451 0.0348986475822 0.0194062410908 0.0113201593925 0.00840460099173 0.00750784536377 0.0073607362595 0.00799377855993 0.010752346222 0.0191253235352 0.0363358189109 0.0506359729417 0.0523091429568 0.403580190889 0.418977128786 0.329164936517 0.189486694916 0.106338076685 0.0762159466292 0.0674514503816 0.0659909347742 0.0721297556693 0.100660083328 0.18654460039 0.33923768935 0.445510586677 0.441343292383 1.0 1.0 1.0 0.830907841711 0.483865787073 0.337435379229 0.2942795902 0.287972725434 0.319917420878 0.460625795786 0.832808920083 1.0 1.0 1.0 1.0 1.0 1.0 1.0 0.857394324995 0.585379515322 0.500910374446 0.490742346974 0.557442044629 0.823228533795 1.0 1.0 1.0 1.0 1.0 1.0 1.0 0.882864737264 0.504905103575 0.337006867942 0.284074142215 0.278875053839 0.323073748997 0.488163383107 0.877311144088 1.0 1.0 1.0 0.231561775603 0.276366983672 0.255288765455 0.159551837575 0.0869088048506 0.0570861680341 0.0477810239102 0.0470480646301 0.0551800828982 0.0848406806517 0.15987510831 0.260496824777 0.285405240784 0.24484427468 0.0139918140664 0.0172456515513 0.0160682494001 0.00942750765152 0.00500825538672 0.00326418334287 0.00271729074566 0.00268666852725 0.00319060661699 0.00495804253424 0.00957831942218 0.0166835228619 0.0183206260723 0.0152855977201 0.0011168211998 0.0012185127223 0.00309987625672 0.00516803290067 0.00457788548395 0.00316284881158 0.00241261254159 0.00220665149717 0.00228960378603 0.00271435523605 0.00390769090962 0.00621750707996 0.00766744651457 0.00500834115537 0.00213007070239 0.00345644653931 0.00861810594825 0.0139387239647 0.0125749358778 0.00914745473424 0.00733413287677 0.00686631629254 0.00709048743157 0.00813450813198 0.0110814756667 0.0167771461662 0.0203814953987 0.0137403904156 0.00596229441255 0.00442519579944 0.0109108411892 0.0172489166568 0.0158907640416 0.0122094975533 0.0102565720746 0.00977380934553 0.0100537649632 0.0112332621732 0.01448944002 0.020730201101 0.0247090056123 0.017058193394 0.00749069144835 0.00312234246224 0.00749855130641 0.0115478041979 0.0109192049993 0.00888443877232 0.00775954297525 0.00746976909981 0.00766243117409 0.00841572565255 0.0103426509856 0.0138777323922 0.0160841530707 0.0113743887056 0.00511760737039 0.00159912824694 0.00339466592527 0.00494679308577 0.00480422299629 0.00411652216818 0.00369011942871 0.00356192351912 0.00364627914032 0.0039721709821 0.00471077976147 0.00592987138539 0.00662560201908 0.00489763389026 0.00245593416794 0.00100295725318 0.00147470726564 0.00183711635705 0.00175258274115 0.00151841596806 0.00135819917325 0.00129990749416 0.00132689895565 0.00144781124733 0.00170070356546 0.00207735405276 0.00230972386099 0.00195102417798 0.0013749117709 0.00293133580682 0.00268207770766 0.00218912911765 0.00160016451032 0.00119759833235 0.0010041478233 0.00124741751321 0.00172394688486 0.00244702889051 0.00312040608762 0.00352147175397 0.0324837859669 0.0276096877253 0.0181224989193 0.0101033743161 0.00636589711323 0.00497672318466 0.00448745226075 0.00440614657141 0.00475147070031 0.00605627347201 0.00991125036335 0.0187608024329 0.030294287035 0.0368880457504 0.295206902425 0.267727192687 0.181685667767 0.0968870663181 0.0564220665332 0.0427927778942 0.0385561938911 0.0376616667172 0.0402693055427 0.0527596728417 0.0939860152202 0.186251087471 0.286880623003 0.324946141076 0.900405059049 0.91105006483 0.823423764248 0.529991232739 0.304417834799 0.2244134856 0.201009864135 0.196257295375 0.211015621795 0.285387640683 0.516456467237 0.84441822401 0.942759812879 0.938058265878 1.0 1.0 1.0 1.0 0.720678198639 0.514229644471 0.455031773125 0.444525566081 0.484571894293 0.680151045005 1.0 1.0 1.0 1.0 1.0 1.0 1.0 1.0 0.628919475215 0.432596850169 0.376391527891 0.368003766899 0.409080360278 0.597245411769 1.0 1.0 1.0 1.0 0.581620455762 0.64354814108 0.550824759166 0.332654076553 0.176558209682 0.117488904551 0.10055667421 0.0984400315675 0.111601993502 0.168640464766 0.328550897751 0.557406845723 0.654633658423 0.600932278583 0.0537499078041 0.0612782738003 0.0517867446268 0.0282132369795 0.0141797676744 0.00915775310443 0.00771459612455 0.00756698906093 0.0087529834692 0.0136623083605 0.0280132142028 0.0529596720419 0.0635384947508 0.0564639617005 0.00135950479124 0.00160626598482 0.00143211690335 0.00147621610296 0.00169748882371 0.00146507393609 0.00154719261673 0.00126631132369 0.00101691012453 0.00174046081368 0.00235537021233 0.00163573495238 0.0020607539786 0.00497263221346 0.00727789999864 0.00594613767309 0.00410202763193 0.00326004368391 0.00305733935718 0.00315127042232 0.00359722731167 0.0049522069998 0.00797917061616 0.0108005649179 0.00809265563135 0.0036456013999 0.00493311993234 0.0110990298664 0.0151186953622 0.0124412115333 0.00915927378966 0.00772058173064 0.00740421794114 0.00760710272506 0.0084217856968 0.0108169574144 0.0162358780639 0.0217761924808 0.0174585733918 0.00839242745361 0.00628107803609 0.0127220836583 0.016144123338 0.0135606928397 0.0107072081666 0.00945888061665 0.00918357419618 0.00941369084982 0.0102291249737 0.0123976406152 0.0171615376036 0.0224279622369 0.0191839965257 0.0101484568509 0.00543663139851 0.00886662587137 0.010371252764 0.00902090456362 0.00759052049605 0.00690194034024 0.00672259021875 0.00687940130541 0.00741684357167 0.00864823464543 0.0110637980803 0.0137875292953 0.0126472586378 0.00814768216885 0.00581209857289 0.00580741818928 0.00547981087102 0.0046766219907 0.00400611049067 0.00364194072994 0.00351893967818 0.00358662051233 0.0038636354692 0.00444697492341 0.00546673219214 0.00675635522403 0.00747429096459 0.00762628746377 0.0270248344456 0.0186384591753 0.0111992450114 0.0069043422333 0.00499493191052 0.00418460620142 0.0038580000002 0.00382499147274 0.00410265236679 0.00492215504781 0.00699021149033 0.0118672824318 0.0208176470707 0.0312391864669 0.216536617272 0.160886043593 0.0918805930048 0.0480430278034 0.0306394335778 0.0245562261094 0.0222983187974 0.0217446530413 0.022993826663 0.0283664344863 0.0459755627637 0.0935210705575 0.173619438755 0.240162869103 0.821051210643 0.758980102893 0.554111764731 0.300970247681 0.183548016492 0.143712400907 0.130294084488 0.126802708648 0.133875405628 0.169310078127 0.288256709604 0.562364572603 0.791550507845 0.850163669607 1.0 1.0 1.0 0.858194624224 0.557066465967 0.423343809148 0.381797735031 0.371718152234 0.395047807396 0.516526478085 0.857204017674 1.0 1.0 1.0 1.0 1.0 1.0 1.0 0.686277769041 0.501985664085 0.448206357288 0.436692246622 0.469521577676 0.639884510611 1.0 1.0 1.0 1.0 1.0 1.0 0.910644604392 0.54260637874 0.296154916596 0.208482643174 0.183583938112 0.178941119348 0.195320925319 0.27731664951 0.52790552885 0.914216865031 1.0 1.0 0.183944941683 0.192502951036 0.148976890802 0.0794120322262 0.0401504079758 0.0272373705179 0.0236222191883 0.0230308769248 0.0255523350574 0.0377236494261 0.0776553466006 0.150885845411 0.196875418785 0.189432565205 0.00757720100243 0.00809562732003 0.00624970704894 0.00308907240845 0.00149466550048 0.00141428458889 0.00303226482446 0.00635616390151 0.00840497472709 0.00791296226157 0.00208447924596 0.00263682688235 0.00191629785815 0.00127267802409 0.00102081063747 0.00112836894542 0.00154077041624 0.00259662470726 0.00397886580239 0.00345573224134 0.00166397724877 0.003952528102 0.00774681712677 0.00880313517122 0.00647263837276 0.00468671554352 0.00403103244284 0.00390355626848 0.00401546045681 0.00440712987216 0.00554218340076 0.00848400233761 0.0127922315865 0.0122722359546 0.00672582685744 0.00865704909665 0.0139394806876 0.0144865815616 0.0110747011369 0.00877373518485 0.00793881344431 0.00778250018755 0.00798903399528 0.00861169253011 0.0101760263633 0.0140337369474 0.0201990041182 0.0210397983495 0.0138106094854 0.0124899323719 0.0144671952789 0.0136623304463 0.0111279271981 0.00950527168264 0.0088340917644 0.0086798380957 0.00889430860193 0.00952323702935 0.0108550645495 0.0136476667175 0.0181441456099 0.0205041322034 0.0182149806349 0.028187776283 0.0183107190373 0.012257995555 0.00933398415837 0.00797298417635 0.00733132461455 0.00709791197539 0.00719793019305 0.0