# vtk DataFile Version 2.0
ToPy data, created 2015-08-01 13:02:45
ASCII
DATASET UNSTRUCTURED_GRID
POINTS 112896 float
-0.5 -0.5 -0.5
0.5 -0.5 -0.5
-0.5 0.5 -0.5
0.5 0.5 -0.5
-0.5 -0.5 0.5
0.5 -0.5 0.5
-0.5 0.5 0.5
0.5 0.5 0.5
-0.5 -0.5 0.5
0.5 -0.5 0.5
-0.5 0.5 0.5
0.5 0.5 0.5
-0.5 -0.5 1.5
0.5 -0.5 1.5
-0.5 0.5 1.5
0.5 0.5 1.5
-0.5 -0.5 1.5
0.5 -0.5 1.5
-0.5 0.5 1.5
0.5 0.5 1.5
-0.5 -0.5 2.5
0.5 -0.5 2.5
-0.5 0.5 2.5
0.5 0.5 2.5
-0.5 -0.5 2.5
0.5 -0.5 2.5
-0.5 0.5 2.5
0.5 0.5 2.5
-0.5 -0.5 3.5
0.5 -0.5 3.5
-0.5 0.5 3.5
0.5 0.5 3.5
-0.5 -0.5 3.5
0.5 -0.5 3.5
-0.5 0.5 3.5
0.5 0.5 3.5
-0.5 -0.5 4.5
0.5 -0.5 4.5
-0.5 0.5 4.5
0.5 0.5 4.5
-0.5 -0.5 4.5
0.5 -0.5 4.5
-0.5 0.5 4.5
0.5 0.5 4.5
-0.5 -0.5 5.5
0.5 -0.5 5.5
-0.5 0.5 5.5
0.5 0.5 5.5
-0.5 -0.5 5.5
0.5 -0.5 5.5
-0.5 0.5 5.5
0.5 0.5 5.5
-0.5 -0.5 6.5
0.5 -0.5 6.5
-0.5 0.5 6.5
0.5 0.5 6.5
-0.5 -0.5 6.5
0.5 -0.5 6.5
-0.5 0.5 6.5
0.5 0.5 6.5
-0.5 -0.5 7.5
0.5 -0.5 7.5
-0.5 0.5 7.5
0.5 0.5 7.5
-0.5 -0.5 7.5
0.5 -0.5 7.5
-0.5 0.5 7.5
0.5 0.5 7.5
-0.5 -0.5 8.5
0.5 -0.5 8.5
-0.5 0.5 8.5
0.5 0.5 8.5
-0.5 -0.5 8.5
0.5 -0.5 8.5
-0.5 0.5 8.5
0.5 0.5 8.5
-0.5 -0.5 9.5
0.5 -0.5 9.5
-0.5 0.5 9.5
0.5 0.5 9.5
-0.5 -0.5 9.5
0.5 -0.5 9.5
-0.5 0.5 9.5
0.5 0.5 9.5
-0.5 -0.5 10.5
0.5 -0.5 10.5
-0.5 0.5 10.5
0.5 0.5 10.5
-0.5 -0.5 10.5
0.5 -0.5 10.5
-0.5 0.5 10.5
0.5 0.5 10.5
-0.5 -0.5 11.5
0.5 -0.5 11.5
-0.5 0.5 11.5
0.5 0.5 11.5
-0.5 -0.5 11.5
0.5 -0.5 11.5
-0.5 0.5 11.5
0.5 0.5 11.5
-0.5 -0.5 12.5
0.5 -0.5 12.5
-0.5 0.5 12.5
0.5 0.5 12.5
-0.5 -0.5 12.5
0.5 -0.5 12.5
-0.5 0.5 12.5
0.5 0.5 12.5
-0.5 -0.5 13.5
0.5 -0.5 13.5
-0.5 0.5 13.5
0.5 0.5 13.5
-0.5 0.5 -0.5
0.5 0.5 -0.5
-0.5 1.5 -0.5
0.5 1.5 -0.5
-0.5 0.5 0.5
0.5 0.5 0.5
-0.5 1.5 0.5
0.5 1.5 0.5
-0.5 0.5 0.5
0.5 0.5 0.5
-0.5 1.5 0.5
0.5 1.5 0.5
-0.5 0.5 1.5
0.5 0.5 1.5
-0.5 1.5 1.5
0.5 1.5 1.5
-0.5 0.5 1.5
0.5 0.5 1.5
-0.5 1.5 1.5
0.5 1.5 1.5
-0.5 0.5 2.5
0.5 0.5 2.5
-0.5 1.5 2.5
0.5 1.5 2.5
-0.5 0.5 2.5
0.5 0.5 2.5
-0.5 1.5 2.5
0.5 1.5 2.5
-0.5 0.5 3.5
0.5 0.5 3.5
-0.5 1.5 3.5
0.5 1.5 3.5
-0.5 0.5 3.5
0.5 0.5 3.5
-0.5 1.5 3.5
0.5 1.5 3.5
-0.5 0.5 4.5
0.5 0.5 4.5
-0.5 1.5 4.5
0.5 1.5 4.5
-0.5 0.5 4.5
0.5 0.5 4.5
-0.5 1.5 4.5
0.5 1.5 4.5
-0.5 0.5 5.5
0.5 0.5 5.5
-0.5 1.5 5.5
0.5 1.5 5.5
-0.5 0.5 5.5
0.5 0.5 5.5
-0.5 1.5 5.5
0.5 1.5 5.5
-0.5 0.5 6.5
0.5 0.5 6.5
-0.5 1.5 6.5
0.5 1.5 6.5
-0.5 0.5 6.5
0.5 0.5 6.5
-0.5 1.5 6.5
0.5 1.5 6.5
-0.5 0.5 7.5
0.5 0.5 7.5
-0.5 1.5 7.5
0.5 1.5 7.5
-0.5 0.5 7.5
0.5 0.5 7.5
-0.5 1.5 7.5
0.5 1.5 7.5
-0.5 0.5 8.5
0.5 0.5 8.5
-0.5 1.5 8.5
0.5 1.5 8.5
-0.5 0.5 8.5
0.5 0.5 8.5
-0.5 1.5 8.5
0.5 1.5 8.5
-0.5 0.5 9.5
0.5 0.5 9.5
-0.5 1.5 9.5
0.5 1.5 9.5
-0.5 0.5 9.5
0.5 0.5 9.5
-0.5 1.5 9.5
0.5 1.5 9.5
-0.5 0.5 10.5
0.5 0.5 10.5
-0.5 1.5 10.5
0.5 1.5 10.5
-0.5 0.5 10.5
0.5 0.5 10.5
-0.5 1.5 10.5
0.5 1.5 10.5
-0.5 0.5 11.5
0.5 0.5 11.5
-0.5 1.5 11.5
0.5 1.5 11.5
-0.5 0.5 11.5
0.5 0.5 11.5
-0.5 1.5 11.5
0.5 1.5 11.5
-0.5 0.5 12.5
0.5 0.5 12.5
-0.5 1.5 12.5
0.5 1.5 12.5
-0.5 0.5 12.5
0.5 0.5 12.5
-0.5 1.5 12.5
0.5 1.5 12.5
-0.5 0.5 13.5
0.5 0.5 13.5
-0.5 1.5 13.5
0.5 1.5 13.5
-0.5 1.5 -0.5
0.5 1.5 -0.5
-0.5 2.5 -0.5
0.5 2.5 -0.5
-0.5 1.5 0.5
0.5 1.5 0.5
-0.5 2.5 0.5
0.5 2.5 0.5
-0.5 1.5 0.5
0.5 1.5 0.5
-0.5 2.5 0.5
0.5 2.5 0.5
-0.5 1.5 1.5
0.5 1.5 1.5
-0.5 2.5 1.5
0.5 2.5 1.5
-0.5 1.5 1.5
0.5 1.5 1.5
-0.5 2.5 1.5
0.5 2.5 1.5
-0.5 1.5 2.5
0.5 1.5 2.5
-0.5 2.5 2.5
0.5 2.5 2.5
-0.5 1.5 2.5
0.5 1.5 2.5
-0.5 2.5 2.5
0.5 2.5 2.5
-0.5 1.5 3.5
0.5 1.5 3.5
-0.5 2.5 3.5
0.5 2.5 3.5
-0.5 1.5 3.5
0.5 1.5 3.5
-0.5 2.5 3.5
0.5 2.5 3.5
-0.5 1.5 4.5
0.5 1.5 4.5
-0.5 2.5 4.5
0.5 2.5 4.5
-0.5 1.5 4.5
0.5 1.5 4.5
-0.5 2.5 4.5
0.5 2.5 4.5
-0.5 1.5 5.5
0.5 1.5 5.5
-0.5 2.5 5.5
0.5 2.5 5.5
-0.5 1.5 5.5
0.5 1.5 5.5
-0.5 2.5 5.5
0.5 2.5 5.5
-0.5 1.5 6.5
0.5 1.5 6.5
-0.5 2.5 6.5
0.5 2.5 6.5
-0.5 1.5 6.5
0.5 1.5 6.5
-0.5 2.5 6.5
0.5 2.5 6.5
-0.5 1.5 7.5
0.5 1.5 7.5
-0.5 2.5 7.5
0.5 2.5 7.5
-0.5 1.5 7.5
0.5 1.5 7.5
-0.5 2.5 7.5
0.5 2.5 7.5
-0.5 1.5 8.5
0.5 1.5 8.5
-0.5 2.5 8.5
0.5 2.5 8.5
-0.5 1.5 8.5
0.5 1.5 8.5
-0.5 2.5 8.5
0.5 2.5 8.5
-0.5 1.5 9.5
0.5 1.5 9.5
-0.5 2.5 9.5
0.5 2.5 9.5
-0.5 1.5 9.5
0.5 1.5 9.5
-0.5 2.5 9.5
0.5 2.5 9.5
-0.5 1.5 10.5
0.5 1.5 10.5
-0.5 2.5 10.5
0.5 2.5 10.5
-0.5 1.5 10.5
0.5 1.5 10.5
-0.5 2.5 10.5
0.5 2.5 10.5
-0.5 1.5 11.5
0.5 1.5 11.5
-0.5 2.5 11.5
0.5 2.5 11.5
-0.5 1.5 11.5
0.5 1.5 11.5
-0.5 2.5 11.5
0.5 2.5 11.5
-0.5 1.5 12.5
0.5 1.5 12.5
-0.5 2.5 12.5
0.5 2.5 12.5
-0.5 1.5 12.5
0.5 1.5 12.5
-0.5 2.5 12.5
0.5 2.5 12.5
-0.5 1.5 13.5
0.5 1.5 13.5
-0.5 2.5 13.5
0.5 2.5 13.5
-0.5 2.5 -0.5
0.5 2.5 -0.5
-0.5 3.5 -0.5
0.5 3.5 -0.5
-0.5 2.5 0.5
0.5 2.5 0.5
-0.5 3.5 0.5
0.5 3.5 0.5
-0.5 2.5 0.5
0.5 2.5 0.5
-0.5 3.5 0.5
0.5 3.5 0.5
-0.5 2.5 1.5
0.5 2.5 1.5
-0.5 3.5 1.5
0.5 3.5 1.5
-0.5 2.5 1.5
0.5 2.5 1.5
-0.5 3.5 1.5
0.5 3.5 1.5
-0.5 2.5 2.5
0.5 2.5 2.5
-0.5 3.5 2.5
0.5 3.5 2.5
-0.5 2.5 2.5
0.5 2.5 2.5
-0.5 3.5 2.5
0.5 3.5 2.5
-0.5 2.5 3.5
0.5 2.5 3.5
-0.5 3.5 3.5
0.5 3.5 3.5
-0.5 2.5 3.5
0.5 2.5 3.5
-0.5 3.5 3.5
0.5 3.5 3.5
-0.5 2.5 4.5
0.5 2.5 4.5
-0.5 3.5 4.5
0.5 3.5 4.5
-0.5 2.5 4.5
0.5 2.5 4.5
-0.5 3.5 4.5
0.5 3.5 4.5
-0.5 2.5 5.5
0.5 2.5 5.5
-0.5 3.5 5.5
0.5 3.5 5.5
-0.5 2.5 5.5
0.5 2.5 5.5
-0.5 3.5 5.5
0.5 3.5 5.5
-0.5 2.5 6.5
0.5 2.5 6.5
-0.5 3.5 6.5
0.5 3.5 6.5
-0.5 2.5 6.5
0.5 2.5 6.5
-0.5 3.5 6.5
0.5 3.5 6.5
-0.5 2.5 7.5
0.5 2.5 7.5
-0.5 3.5 7.5
0.5 3.5 7.5
-0.5 2.5 7.5
0.5 2.5 7.5
-0.5 3.5 7.5
0.5 3.5 7.5
-0.5 2.5 8.5
0.5 2.5 8.5
-0.5 3.5 8.5
0.5 3.5 8.5
-0.5 2.5 8.5
0.5 2.5 8.5
-0.5 3.5 8.5
0.5 3.5 8.5
-0.5 2.5 9.5
0.5 2.5 9.5
-0.5 3.5 9.5
0.5 3.5 9.5
-0.5 2.5 9.5
0.5 2.5 9.5
-0.5 3.5 9.5
0.5 3.5 9.5
-0.5 2.5 10.5
0.5 2.5 10.5
-0.5 3.5 10.5
0.5 3.5 10.5
-0.5 2.5 10.5
0.5 2.5 10.5
-0.5 3.5 10.5
0.5 3.5 10.5
-0.5 2.5 11.5
0.5 2.5 11.5
-0.5 3.5 11.5
0.5 3.5 11.5
-0.5 2.5 11.5
0.5 2.5 11.5
-0.5 3.5 11.5
0.5 3.5 11.5
-0.5 2.5 12.5
0.5 2.5 12.5
-0.5 3.5 12.5
0.5 3.5 12.5
-0.5 2.5 12.5
0.5 2.5 12.5
-0.5 3.5 12.5
0.5 3.5 12.5
-0.5 2.5 13.5
0.5 2.5 13.5
-0.5 3.5 13.5
0.5 3.5 13.5
-0.5 3.5 -0.5
0.5 3.5 -0.5
-0.5 4.5 -0.5
0.5 4.5 -0.5
-0.5 3.5 0.5
0.5 3.5 0.5
-0.5 4.5 0.5
0.5 4.5 0.5
-0.5 3.5 0.5
0.5 3.5 0.5
-0.5 4.5 0.5
0.5 4.5 0.5
-0.5 3.5 1.5
0.5 3.5 1.5
-0.5 4.5 1.5
0.5 4.5 1.5
-0.5 3.5 1.5
0.5 3.5 1.5
-0.5 4.5 1.5
0.5 4.5 1.5
-0.5 3.5 2.5
0.5 3.5 2.5
-0.5 4.5 2.5
0.5 4.5 2.5
-0.5 3.5 2.5
0.5 3.5 2.5
-0.5 4.5 2.5
0.5 4.5 2.5
-0.5 3.5 3.5
0.5 3.5 3.5
-0.5 4.5 3.5
0.5 4.5 3.5
-0.5 3.5 3.5
0.5 3.5 3.5
-0.5 4.5 3.5
0.5 4.5 3.5
-0.5 3.5 4.5
0.5 3.5 4.5
-0.5 4.5 4.5
0.5 4.5 4.5
-0.5 3.5 4.5
0.5 3.5 4.5
-0.5 4.5 4.5
0.5 4.5 4.5
-0.5 3.5 5.5
0.5 3.5 5.5
-0.5 4.5 5.5
0.5 4.5 5.5
-0.5 3.5 5.5
0.5 3.5 5.5
-0.5 4.5 5.5
0.5 4.5 5.5
-0.5 3.5 6.5
0.5 3.5 6.5
-0.5 4.5 6.5
0.5 4.5 6.5
-0.5 3.5 6.5
0.5 3.5 6.5
-0.5 4.5 6.5
0.5 4.5 6.5
-0.5 3.5 7.5
0.5 3.5 7.5
-0.5 4.5 7.5
0.5 4.5 7.5
-0.5 3.5 7.5
0.5 3.5 7.5
-0.5 4.5 7.5
0.5 4.5 7.5
-0.5 3.5 8.5
0.5 3.5 8.5
-0.5 4.5 8.5
0.5 4.5 8.5
-0.5 3.5 8.5
0.5 3.5 8.5
-0.5 4.5 8.5
0.5 4.5 8.5
-0.5 3.5 9.5
0.5 3.5 9.5
-0.5 4.5 9.5
0.5 4.5 9.5
-0.5 3.5 9.5
0.5 3.5 9.5
-0.5 4.5 9.5
0.5 4.5 9.5
-0.5 3.5 10.5
0.5 3.5 10.5
-0.5 4.5 10.5
0.5 4.5 10.5
-0.5 3.5 10.5
0.5 3.5 10.5
-0.5 4.5 10.5
0.5 4.5 10.5
-0.5 3.5 11.5
0.5 3.5 11.5
-0.5 4.5 11.5
0.5 4.5 11.5
-0.5 3.5 11.5
0.5 3.5 11.5
-0.5 4.5 11.5
0.5 4.5 11.5
-0.5 3.5 12.5
0.5 3.5 12.5
-0.5 4.5 12.5
0.5 4.5 12.5
-0.5 3.5 12.5
0.5 3.5 12.5
-0.5 4.5 12.5
0.5 4.5 12.5
-0.5 3.5 13.5
0.5 3.5 13.5
-0.5 4.5 13.5
0.5 4.5 13.5
-0.5 4.5 -0.5
0.5 4.5 -0.5
-0.5 5.5 -0.5
0.5 5.5 -0.5
-0.5 4.5 0.5
0.5 4.5 0.5
-0.5 5.5 0.5
0.5 5.5 0.5
-0.5 4.5 0.5
0.5 4.5 0.5
-0.5 5.5 0.5
0.5 5.5 0.5
-0.5 4.5 1.5
0.5 4.5 1.5
-0.5 5.5 1.5
0.5 5.5 1.5
-0.5 4.5 1.5
0.5 4.5 1.5
-0.5 5.5 1.5
0.5 5.5 1.5
-0.5 4.5 2.5
0.5 4.5 2.5
-0.5 5.5 2.5
0.5 5.5 2.5
-0.5 4.5 2.5
0.5 4.5 2.5
-0.5 5.5 2.5
0.5 5.5 2.5
-0.5 4.5 3.5
0.5 4.5 3.5
-0.5 5.5 3.5
0.5 5.5 3.5
-0.5 4.5 3.5
0.5 4.5 3.5
-0.5 5.5 3.5
0.5 5.5 3.5
-0.5 4.5 4.5
0.5 4.5 4.5
-0.5 5.5 4.5
0.5 5.5 4.5
-0.5 4.5 4.5
0.5 4.5 4.5
-0.5 5.5 4.5
0.5 5.5 4.5
-0.5 4.5 5.5
0.5 4.5 5.5
-0.5 5.5 5.5
0.5 5.5 5.5
-0.5 4.5 5.5
0.5 4.5 5.5
-0.5 5.5 5.5
0.5 5.5 5.5
-0.5 4.5 6.5
0.5 4.5 6.5
-0.5 5.5 6.5
0.5 5.5 6.5
-0.5 4.5 6.5
0.5 4.5 6.5
-0.5 5.5 6.5
0.5 5.5 6.5
-0.5 4.5 7.5
0.5 4.5 7.5
-0.5 5.5 7.5
0.5 5.5 7.5
-0.5 4.5 7.5
0.5 4.5 7.5
-0.5 5.5 7.5
0.5 5.5 7.5
-0.5 4.5 8.5
0.5 4.5 8.5
-0.5 5.5 8.5
0.5 5.5 8.5
-0.5 4.5 8.5
0.5 4.5 8.5
-0.5 5.5 8.5
0.5 5.5 8.5
-0.5 4.5 9.5
0.5 4.5 9.5
-0.5 5.5 9.5
0.5 5.5 9.5
-0.5 4.5 9.5
0.5 4.5 9.5
-0.5 5.5 9.5
0.5 5.5 9.5
-0.5 4.5 10.5
0.5 4.5 10.5
-0.5 5.5 10.5
0.5 5.5 10.5
-0.5 4.5 10.5
0.5 4.5 10.5
-0.5 5.5 10.5
0.5 5.5 10.5
-0.5 4.5 11.5
0.5 4.5 11.5
-0.5 5.5 11.5
0.5 5.5 11.5
-0.5 4.5 11.5
0.5 4.5 11.5
-0.5 5.5 11.5
0.5 5.5 11.5
-0.5 4.5 12.5
0.5 4.5 12.5
-0.5 5.5 12.5
0.5 5.5 12.5
-0.5 4.5 12.5
0.5 4.5 12.5
-0.5 5.5 12.5
0.5 5.5 12.5
-0.5 4.5 13.5
0.5 4.5 13.5
-0.5 5.5 13.5
0.5 5.5 13.5
-0.5 5.5 -0.5
0.5 5.5 -0.5
-0.5 6.5 -0.5
0.5 6.5 -0.5
-0.5 5.5 0.5
0.5 5.5 0.5
-0.5 6.5 0.5
0.5 6.5 0.5
-0.5 5.5 0.5
0.5 5.5 0.5
-0.5 6.5 0.5
0.5 6.5 0.5
-0.5 5.5 1.5
0.5 5.5 1.5
-0.5 6.5 1.5
0.5 6.5 1.5
-0.5 5.5 1.5
0.5 5.5 1.5
-0.5 6.5 1.5
0.5 6.5 1.5
-0.5 5.5 2.5
0.5 5.5 2.5
-0.5 6.5 2.5
0.5 6.5 2.5
-0.5 5.5 2.5
0.5 5.5 2.5
-0.5 6.5 2.5
0.5 6.5 2.5
-0.5 5.5 3.5
0.5 5.5 3.5
-0.5 6.5 3.5
0.5 6.5 3.5
-0.5 5.5 3.5
0.5 5.5 3.5
-0.5 6.5 3.5
0.5 6.5 3.5
-0.5 5.5 4.5
0.5 5.5 4.5
-0.5 6.5 4.5
0.5 6.5 4.5
-0.5 5.5 4.5
0.5 5.5 4.5
-0.5 6.5 4.5
0.5 6.5 4.5
-0.5 5.5 5.5
0.5 5.5 5.5
-0.5 6.5 5.5
0.5 6.5 5.5
-0.5 5.5 5.5
0.5 5.5 5.5
-0.5 6.5 5.5
0.5 6.5 5.5
-0.5 5.5 6.5
0.5 5.5 6.5
-0.5 6.5 6.5
0.5 6.5 6.5
-0.5 5.5 6.5
0.5 5.5 6.5
-0.5 6.5 6.5
0.5 6.5 6.5
-0.5 5.5 7.5
0.5 5.5 7.5
-0.5 6.5 7.5
0.5 6.5 7.5
-0.5 5.5 7.5
0.5 5.5 7.5
-0.5 6.5 7.5
0.5 6.5 7.5
-0.5 5.5 8.5
0.5 5.5 8.5
-0.5 6.5 8.5
0.5 6.5 8.5
-0.5 5.5 8.5
0.5 5.5 8.5
-0.5 6.5 8.5
0.5 6.5 8.5
-0.5 5.5 9.5
0.5 5.5 9.5
-0.5 6.5 9.5
0.5 6.5 9.5
-0.5 5.5 9.5
0.5 5.5 9.5
-0.5 6.5 9.5
0.5 6.5 9.5
-0.5 5.5 10.5
0.5 5.5 10.5
-0.5 6.5 10.5
0.5 6.5 10.5
-0.5 5.5 10.5
0.5 5.5 10.5
-0.5 6.5 10.5
0.5 6.5 10.5
-0.5 5.5 11.5
0.5 5.5 11.5
-0.5 6.5 11.5
0.5 6.5 11.5
-0.5 5.5 11.5
[...]
CELL_DATA 14112
SCALARS Densities double 1
LOOKUP_TABLE default
0.28779628384 0.278443038662 0.273686368213 0.274171534481 0.275301095466 0.276268203031 0.276796894529 0.27681024352 0.276305171912 0.275351797991 0.274216806759 0.273691200683 0.278326956953 0.28750855139 0.240918738003 0.229439976446 0.224400918274 0.224111238566 0.224626049025 0.225176978439 0.225496105178 0.225502221801 0.225192608542 0.224642431961 0.224111213213 0.224352467815 0.22926534714 0.240564111894 0.195419471102 0.185749328972 0.181056068364 0.180445606889 0.180603440854 0.180884751071 0.181061797468 0.181064401945 0.180890366987 0.180604905882 0.180428478638 0.180992062817 0.185563201335 0.195056092643 0.165471657246 0.158528045675 0.155381518112 0.155169935139 0.155423257351 0.155704888682 0.15586950745 0.155875673495 0.155721781817 0.155445512814 0.155186137912 0.155367521196 0.158412574743 0.165193513178 0.142740768711 0.138919359134 0.137687954431 0.138096485711 0.13858514382 0.138951221721 0.139144900522 0.139158566318 0.13899122362 0.138647986047 0.138174021174 0.137760957734 0.138924087512 0.142610193796 0.125353232149 0.124747782552 0.125482055322 0.126561198315 0.127325443181 0.127803094772 0.128039961379 0.12806307532 0.127872014855 0.127438482184 0.126713613518 0.125660623114 0.124902140932 0.125416581518 0.112716211882 0.115054985498 0.117517051821 0.119188414006 0.120202394299 0.120784700771 0.121063426856 0.121096003602 0.120882494413 0.12036530657 0.119414971268 0.117800725269 0.11536444303 0.1129961367 0.104815010286 0.10934908854 0.113033428 0.115118005761 0.116307154703 0.1169636257 0.117272613747 0.117312994484 0.117085176583 0.116510955982 0.115405217064 0.113403558616 0.109790831206 0.105293834107 0.101763366919 0.107291411386 0.111504443045 0.113762328544 0.115023213966 0.115709340205 0.11603089054 0.11607628608 0.115846105427 0.115253038329 0.114087852779 0.111928894956 0.107817165218 0.10237360059 0.103496888708 0.108617076972 0.112603769731 0.114778165787 0.115999106005 0.116666167241 0.116980649495 0.117027754525 0.116808046078 0.116237426313 0.115115635088 0.113044036532 0.109164794587 0.104137612859 0.109692685797 0.113158916411 0.116229322902 0.118083999357 0.119162633582 0.119766375124 0.120056008447 0.120101535511 0.119903336878 0.119392096607 0.118407422022 0.11664766788 0.113668284442 0.110266902251 0.119955534474 0.120907420843 0.122526391612 0.123874230812 0.124731536535 0.12523923484 0.125491186613 0.125532320321 0.125362698129 0.124937346884 0.124161652631 0.122891701077 0.121332301513 0.120398978447 0.134082790611 0.1320744385 0.13190768454 0.132632764461 0.133224503951 0.133620534922 0.133829291446 0.133864119035 0.133724664615 0.13339661142 0.132869428185 0.132199846344 0.132389095915 0.134369492873 0.152269714743 0.147187809357 0.145116652315 0.145191358296 0.145517521492 0.145807855324 0.145977221657 0.146005136846 0.145890772432 0.145652616634 0.145372383585 0.145329520514 0.147387910633 0.152404095058 0.1753886627 0.167363570184 0.163489721048 0.162991905576 0.163107650703 0.16332683886 0.163473606494 0.16349562879 0.163391576901 0.16321072724 0.163124282256 0.163632864425 0.167464847204 0.175396863808 0.205607052037 0.195011686892 0.189706931042 0.188863818928 0.188912405926 0.189145842327 0.189311450167 0.189330559718 0.189201356474 0.188998442988 0.18896868194 0.189808073807 0.195050820494 0.20553523121 0.251715047392 0.239427561363 0.233883245815 0.23341167234 0.233843877403 0.234360344668 0.234673694655 0.234696584204 0.234426758924 0.233946557502 0.233536447443 0.234003752127 0.239480831851 0.251650764617 0.299531884288 0.289519884142 0.28431376267 0.284649032507 0.285713172363 0.286654969317 0.28718214889 0.287213062615 0.286745138328 0.285854325504 0.284825135733 0.284495414026 0.289640165536 0.299538735616 0.251555388719 0.251023661522 0.249044543572 0.247920605759 0.247873395942 0.248076857844 0.248242953465 0.248250906702 0.248097657645 0.247897277249 0.247929216079 0.249006102375 0.250893406657 0.251315431081 0.220240266393 0.221099154786 0.219972336051 0.219239375805 0.219282699034 0.219486913657 0.219636675357 0.219641670792 0.219499102904 0.219293110999 0.219230989436 0.219915048056 0.220951692568 0.219988590881 0.186629837884 0.188266485713 0.187947993087 0.187639062871 0.187813940323 0.188046559696 0.188195063282 0.188199847545 0.18805861207 0.187825804359 0.187636332747 0.187904319219 0.188146318469 0.186422965752 0.160867835358 0.163115002548 0.163607972338 0.163766328589 0.164121452742 0.164421316001 0.164591166915 0.164599851339 0.164445668698 0.164155862337 0.163799604324 0.163618551246 0.163073588286 0.160765684804 0.142221623229 0.145214285454 0.146638722535 0.147352985484 0.14794788686 0.148352147879 0.148562752801 0.148578429699 0.148398094644 0.148020409497 0.147444308271 0.146732686357 0.145288298009 0.142266474843 0.128851207202 0.132599459283 0.134934169081 0.136195926935 0.137034418474 0.137548002342 0.137802975094 0.137827092907 0.137619846335 0.137152118161 0.136355105331 0.135124601324 0.132806464959 0.129065150809 0.119876909173 0.124280795886 0.127377568307 0.129096025248 0.130139922794 0.130746370577 0.131039676033 0.131072096233 0.130843596832 0.130301635141 0.129320906892 0.127661303926 0.124617396019 0.120257311164 0.114712076926 0.119566225501 0.123174605644 0.125197236021 0.126377371931 0.127045099637 0.127364069697 0.127403331495 0.127163181236 0.126575065807 0.125475547845 0.123534100779 0.120008656109 0.115229578788 0.112933136842 0.117963840912 0.121775276609 0.123916909074 0.125147891433 0.125837403052 0.126165887246 0.126209654208 0.125969160692 0.125368994729 0.124229614128 0.122182994565 0.118473003419 0.113536470213 0.114239848416 0.119157547852 0.122852829303 0.124922837898 0.126116450933 0.126786872622 0.127108045625 0.127153575059 0.126923905291 0.126346324678 0.125247850251 0.123276688174 0.119687097071 0.114866957304 0.118486586924 0.123033779127 0.126321345683 0.128144208331 0.129219693645 0.129833931301 0.130132557905 0.130177098618 0.129967827893 0.129443734964 0.128459611775 0.126729720155 0.123538406785 0.119077350317 0.125725514264 0.129708660005 0.1323514325 0.133782062863 0.134674126812 0.135202938407 0.135467171315 0.135508304723 0.135326312298 0.134879549463 0.134068802931 0.132717273316 0.130150779294 0.126231762077 0.136245140315 0.139550271144 0.141384734863 0.142321944055 0.142987950331 0.143413461536 0.14363634551 0.143672321998 0.14352096501 0.143165500175 0.142566312093 0.141689016101 0.139904706495 0.136636408354 0.150637326415 0.153233700959 0.15418428332 0.154583576674 0.155010352515 0.155329227366 0.155510091259 0.155540169797 0.155418572905 0.155156010532 0.154779564446 0.154418863524 0.153490521008 0.150902827479 0.169905129073 0.171837038884 0.171924583983 0.171807472056 0.172015823066 0.172241916226 0.172387788775 0.172412530126 0.172314761661 0.172132281536 0.171958762068 0.172094369819 0.172002983128 0.170053504508 0.196093978071 0.19750192368 0.196859311259 0.196325600759 0.196381389609 0.196554756937 0.19668570284 0.196707230756 0.196617495634 0.196479381448 0.196447394108 0.196984295573 0.197601821817 0.196153280487 0.230101851262 0.230799140248 0.229413987745 0.228496112357 0.22844060628 0.228595088288 0.228730830228 0.228752359233 0.22865746145 0.228536709322 0.228612369512 0.229526377799 0.230873753594 0.230119213278 0.261773599052 0.261063758618 0.258847056861 0.257549586373 0.257407382087 0.257561507707 0.257712883295 0.257736637103 0.257630375807 0.257513697023 0.257678793352 0.258973709488 0.2611506165 0.261797612689 0.213792290166 0.220450553629 0.221967944168 0.22119502953 0.22049674991 0.220141189661 0.220002248379 0.220004688248 0.220145747335 0.220494901212 0.221171808358 0.22190271753 0.220322890426 0.213606860839 0.196539518599 0.203754515049 0.206264727988 0.206370102537 0.206244689021 0.206205738624 0.206206310027 0.206208879509 0.206210889417 0.206244496436 0.206350552891 0.206206700247 0.203642127531 0.196382887062 0.175071667837 0.181935349639 0.184933311414 0.185672595291 0.185981400769 0.18618773027 0.186298067046 0.186302968696 0.1862003546 0.185995285085 0.185676296206 0.184911799347 0.18188032349 0.174999991228 0.157079863301 0.163191948891 0.166289092209 0.167389663182 0.167966706811 0.168325897609 0.168506499232 0.168516472884 0.16835435127 0.168009067081 0.167437809974 0.166332927107 0.163230472696 0.157133291888 0.143791276652 0.149158093843 0.152283970904 0.153666839892 0.154449763223 0.15492318341 0.15515657227 0.155173625123 0.154973493826 0.154530663488 0.153773546296 0.152411129698 0.149310304997 0.143987703746 0.134752657217 0.139465042368 0.142610598496 0.144227815604 0.145177244937 0.145740044467 0.146014693837 0.146039641921 0.145814583399 0.145300387524 0.144397762913 0.142826168743 0.139734541958 0.135090267997 0.129116596208 0.133313564712 0.136464369463 0.138254405345 0.139325016057 0.139951291522 0.140255336555 0.14028777273 0.140048712602 0.1394877454 0.138483030251 0.136761020721 0.13368852694 0.129576910647 0.126173510339 0.130024846846 0.133164585404 0.135054961195 0.136195635722 0.136857603373 0.137178497868 0.137217045108 0.136973626017 0.136390312649 0.135330481772 0.133525279619 0.13048160918 0.126726327562 0.12539531598 0.12908350715 0.13219815725 0.134114476383 0.135273186981 0.135943216619 0.136268524787 0.136311190104 0.136071708233 0.135489059298 0.134420651002 0.132599928532 0.129591444311 0.126004354528 0.126472888802 0.130182233865 0.133263098678 0.135135539729 0.136263413158 0.136915879206 0.137234062755 0.13727856551 0.137049854057 0.136488333203 0.135454206989 0.133680569707 0.130708193203 0.127100279799 0.129331849626 0.133243358345 0.136288162247 0.138054556484 0.139107852525 0.139720018034 0.140020813095 0.140064843872 0.139852420382 0.139329611801 0.138367594044 0.136696240757 0.133754940637 0.129941036306 0.134139731642 0.138427895637 0.141440805989 0.143048126137 0.143989202003 0.144541555168 0.144816094093 0.144857531278 0.144665910441 0.144196627663 0.14333903093 0.141816803422 0.138895914896 0.134697437461 0.141308615715 0.146135481357 0.149126787277 0.15053287572 0.151331163024 0.151807575228 0.152048389471 0.152085524456 0.151918666163 0.151515248308 0.150788362737 0.149452492148 0.146536319312 0.141786861956 0.151482403754 0.156985197279 0.159969914144 0.161145181827 0.161777148086 0.162164128786 0.162364652649 0.162396446369 0.162258768032 0.161932346606 0.161356999175 0.160233898434 0.157303456011 0.151861186689 0.16551570242 0.171792039456 0.174786878289 0.175709044963 0.176152775547 0.176435298163 0.176587966543 0.176614298424 0.176513087329 0.176278293953 0.175875798447 0.174986788731 0.172023249963 0.16578617982 0.183926183585 0.190994690292 0.193944207074 0.194546655941 0.194747356032 0.194890454075 0.194978724789 0.195000463617 0.194954026759 0.194847658141 0.194674684472 0.194088077736 0.191147204873 0.184093810189 0.205515117311 0.212978669507 0.215487926126 0.215488500078 0.215271808195 0.21517680499 0.215157378461 0.215175980861 0.215230668425 0.215354872119 0.215589941114 0.215592706444 0.213073681056 0.205602264154 0.222630583647 0.22953366219 0.231063426948 0.230187865215 0.229393725039 0.228976264415 0.228812943549 0.22882974808 0.229024663662 0.229467441247 0.230275676913 0.231149363653 0.229600987826 0.222677214006 0.190348374187 0.197412804455 0.20118674476 0.201823561401 0.201558609135 0.201232009016 0.201053828403 0.201054076139 0.201230531413 0.20154875236 0.201794618908 0.201125377004 0.197307023496 0.190202375173 0.178012249459 0.185063031274 0.189324613557 0.190631346569 0.190909063543 0.190931549196 0.190919479308 0.190920637196 0.190933000472 0.19090477303 0.190611811715 0.189279235978 0.184986966787 0.177915588975 0.164356212018 0.170748735128 0.175011810748 0.176737160617 0.177436213977 0.177749973708 0.177882245713 0.177886922017 0.177762465464 0.177452008082 0.176749599843 0.17501535067 0.170747933063 0.164367229153 0.153272637583 0.158644641969 0.162501329479 0.164325424087 0.16522473674 0.165696838488 0.165912726403 0.165923357567 0.165727826542 0.165273521902 0.164388779933 0.162578920828 0.158748633192 0.153421024733 0.14526513901 0.149599507377 0.152953483033 0.154744578112 0.155731883005 0.156286112189 0.156548619813 0.156566669721 0.156339958574 0.155820791612 0.154868358151 0.15311584997 0.149817036207 0.145553406193 0.14009856174 0.143544762938 0.146434097833 0.148149986341 0.149170518707 0.149765225307 0.150052954553 0.150078745039 0.149842765949 0.149300488539 0.148334442421 0.146679331485 0.143868618499 0.140511063172 0.137191402065 0.139970801229 0.142491492055 0.144126218159 0.145150812523 0.145761403512 0.146061188202 0.146094041849 0.145860446346 0.145317649765 0.144364308801 0.142808359867 0.140383321176 0.137702909303 0.135961297488 0.138316086525 0.14058764189 0.142152958488 0.14316565494 0.143776763104 0.144079953735 0.144118487379 0.143893007667 0.143361687884 0.142432890741 0.140959225969 0.138794189973 0.136543275614 0.135980250751 0.138148048386 0.140297364273 0.141815464399 0.142809114299 0.143411505031 0.143712436015 0.14375485662 0.143539445712 0.143024747085 0.142122958192 0.140704075011 0.138666813942 0.136604329349 0.137004002998 0.139211781179 0.141366113751 0.142865120072 0.143838314921 0.144426759221 0.144721701771 0.144766027781 0.14456035067 0.144063140469 0.143184963635 0.141787606696 0.139746331083 0.137643175203 0.138975524506 0.141444651218 0.14373039206 0.145241031671 0.14619513155 0.146766282714 0.147052393754 0.147096598865 0.146899364313 0.146418615714 0.145557978467 0.144146538887 0.141970782492 0.139603967439 0.142024944881 0.144977854739 0.147520327956 0.149072753045 0.150008799355 0.150558944106 0.150833133501 0.150875254337 0.150685553235 0.150220769567 0.149372123871 0.147911781586 0.145472184323 0.142617370593 0.146469383619 0.150128753817 0.153048051981 0.15466740255 0.155582405654 0.156104777372 0.156362334282 0.156400597667 0.156219523188 0.155773644539 0.154935842407 0.153397032178 0.150569176925 0.147000757876 0.152796844528 0.157368915861 0.160767343275 0.162465429852 0.163346100608 0.163826362347 0.164058667005 0.16409168165 0.163924999245 0.163509291141 0.162692190824 0.161059163603 0.15773609075 0.153243353291 0.161533139929 0.167165235256 0.17109399886 0.172847135248 0.173653637192 0.17405934599 0.174248795612 0.174275804839 0.174139549895 0.173784703731 0.173026009315 0.171319575474 0.167445590098 0.161875376034 0.172913599542 0.179599089457 0.183976055705 0.185664304451 0.186292217085 0.186551232893 0.186661917226 0.186683027656 0.186613337084 0.18639171397 0.185795870204 0.184135198282 0.179789409592 0.173142690574 0.186479404708 0.193863973616 0.198280944805 0.199578232278 0.199799347102 0.199772910737 0.199740349084 0.1997565655 0.199820071707 0.199872984982 0.199671243161 0.198385396391 0.193977023482 0.18660560393 0.198556660631 0.205960341222 0.209904501951 0.210533935712 0.210207695776 0.209825748276 0.209622122645 0.209635471362 0.209864261596 0.210266727047 0.210605843184 0.209979515565 0.206030117064 0.198621729534 0.17268034012 0.178582740654 0.182819387704 0.184527296383 0.184980177887 0.184999695136 0.184949183156 0.184949972957 0.185000316283 0.184975459174 0.184508894056 0.182776403585 0.17850413608 0.172570244613 0.163123297381 0.168709395992 0.173069421765 0.175155002593 0.175991439102 0.1762900837 0.176382045803 0.176383813783 0.176293887452 0.175992945909 0.175147737612 0.17304672766 0.168669720579 0.163076900097 0.154245235982 0.159045728469 0.163068067742 0.165260697367 0.166341158745 0.16685312798 0.167062701451 0.167068204228 0.166868701301 0.166364299009 0.165288547924 0.163100597353 0.159092592224 0.154321576753 0.148477656511 0.15223376367 0.155592590626 0.157609316415 0.158726104343 0.159320228022 0.159585845575 0.159597612134 0.159355279521 0.158784072454 0.157691160625 0.155704096245 0.15239231596 0.148698002927 0.145139424837 0.14787491387 0.150510503305 0.152243840591 0.15329129101 0.153890009123 0.154172180856 0.154191514575 0.153948350053 0.153390026612 0.152386779429 0.150707054584 0.148145843755 0.145495384672 0.143598890371 0.145493385291 0.147495020867 0.148942058389 0.149884636108 0.150452763834 0.150731381588 0.150758344823 0.150534381063 0.1500234026 0.149143380319 0.147769775668 0.145862260786 0.144066642184 0.143264392884 0.144552845413 0.146074273999 0.147284277121 0.148124881989 0.148652669291 0.148919948176 0.148953691794 0.148754817747 0.148298434656 0.147535194358 0.146413361453 0.14499871574 0.143815882501 0.143664286535 0.14457982753 0.145791361383 0.14683597513 0.147597035419 0.1480885965 0.148343702565 0.148382838271 0.148206961672 0.147797693988 0.147124749722 0.146178150739 0.145080521734 0.144272901844 0.14447501478 0.145230115118 0.146298161793 0.14725686837 0.147970442605 0.148437355251 0.148683293414 0.14872616422 0.148566869635 0.148189458144 0.147570700735 0.146715539192 0.145764490841 0.145117199984 0.145513957094 0.146303931444 0.147387847042 0.148342086816 0.149044576603 0.149502105714 0.149743819334 0.149788647342 0.149637379649 0.149272802995 0.148667934727 0.147818980533 0.146852175412 0.146168706133 0.146724808618 0.147741010127 0.14899800866 0.150029448484 0.150758304507 0.151222647017 0.151465551385 0.151510498178 0.151358132049 0.150986408425 0.150354174834 0.149426236357 0.148283947795 0.147372255579 0.148175193526 0.149619054862 0.151210042942 0.152399407506 0.153190106073 0.153675745857 0.153924285402 0.153967477386 0.153805792093 0.153408597636 0.152709674487 0.151618444394 0.150137123897 0.14879490864 0.15006931339 0.152158972538 0.154248397803 0.155671142252 0.156552502888 0.157068606592 0.157324349798 0.157363929936 0.157187600521 0.156751902923 0.15595349783 0.154619604932 0.152631441143 0.150638766841 0.152762495438 0.155720338287 0.158460652068 0.160174178399 0.16115864711 0.161702386477 0.161960645827 0.161994923305 0.161805189563 0.161330173595 0.160415889988 0.158777621599 0.15612561193 0.153256534478 0.156758797066 0.160762409577 0.164250431514 0.166264030693 0.16732705003 0.167870435016 0.168113995933 0.168141755947 0.167953327888 0.167464221095 0.166455319829 0.1644991454 0.161080787369 0.157151888487 0.162678166541 0.167762016638 0.171951238508 0.174167888908 0.175210816863 0.175680006243 0.175870251934 0.175891209905 0.175742111434 0.175312014033 0.174305858261 0.17212611132 0.167982414006 0.162951894149 0.171316113234 0.177230781473 0.18179757021 0.183930108184 0.184739527049 0.184998361513 0.185070344408 0.185085540633 0.185042907654 0.184810419885 0.184022948816 0.181908361992 0.177361167879 0.171472572331 0.180564097069 0.186808866953 0.191268226722 0.193023979639 0.193443842303 0.193415999491 0.193339751799 0.193351681019 0.193450674558 0.193497945027 0.193092110769 0.19134350802 0.186885954331 0.180645734128 0.157149531538 0.161763048293 0.165703271566 0.167878429679 0.168889445065 0.169291018681 0.169421503625 0.169425013764 0.169299991153 0.168899155595 0.167880857438 0.165687194685 0.161716969415 0.157077403914 0.149941094084 0.153997863587 0.157767364078 0.160065498272 0.161283681258 0.161863668048 0.162092522005 0.16209663981 0.161874821744 0.161298384386 0.160078465902 0.157773141016 0.15399652416 0.149943024043 0.144797239493 0.147952172903 0.151126302417 0.153257846909 0.154514425474 0.155185298231 0.155477032868 0.155484578568 0.155207461782 0.154550097846 0.153306460763 0.151190722163 0.148045159569 0.14493280608 0.143209019347 0.145345928179 0.147708872756 0.149449347302 0.150563298808 0.151204886679 0.151501571535 0.151515230763 0.151246187286 0.150633619664 0.149552559312 0.147854359561 0.145553959024 0.143491180904 0.14378251942 0.145002683417 0.146576150189 0.147876258843 0.148777988537 0.149331627064 0.149601593758 0.149622683143 0.149395814229 0.148888421362 0.148039617622 0.146805146387 0.145319874288 0.144194174013 0.145435910339 0.145941683117 0.146866125461 0.147775354132 0.148467815032 0.148920945672 0.149154095776 0.149182598083 0